# vtk DataFile Version 4.0
vtk output
ASCII
DATASET UNSTRUCTURED_GRID
POINTS 66 double
0 -0.5 0 0 -0.4 0 0 -0.3 0 0 -0.2 0 0 -0.1 0 0 0 0 0 0.1 0 0 0.2 0 0 0.3 0 0 0.4 0 0 0.5 0 0.4 -0.5 0 0.4 -0.4 0 0.4 -0.3 0 0.4 -0.2 0 0.4 -0.1 0 0.4 0 0 0.4 0.1 0 0.4 0.2 0 0.4 0.3 0 0.4 0.4 0 0.4 0.5 0 0.8 -0.5 0 0.8 -0.4 0 0.8 -0.3 0 0.8 -0.2 0 0.8 -0.1 0 0.8 0 0 0.8 0.1 0 0.8 0.2 0 0.8 0.3 0 0.8 0.4 0 0.8 0.5 0 1.2 -0.5 0 1.2 -0.4 0 1.2 -0.3 0 1.2 -0.2 0 1.2 -0.1 0 1.2 0 0 1.2 0.1 0 1.2 0.2 0 1.2 0.3 0 1.2 0.4 0 1.2 0.5 0 1.6 -0.5 0 1.6 -0.4 0 1.6 -0.3 0 1.6 -0.2 0 1.6 -0.1 0 1.6 0 0 1.6 0.1 0 1.6 0.2 0 1.6 0.3 0 1.6 0.4 0 1.6 0.5 0 2 -0.5 0 2 -0.4 0 2 -0.3 0 2 -0.2 0 2 -0.1 0 2 0 0 2 0.1 0 2 0.2 0 2 0.3 0 2 0.4 0 2 0.5 0 
CELLS 50 250
4 0 11 12 1
4 1 12 13 2
4 2 13 14 3
4 3 14 15 4
4 4 15 16 5
4 5 16 17 6
4 6 17 18 7
4 7 18 19 8
4 8 19 20 9
4 9 20 21 10
4 11 22 23 12
4 12 23 24 13
4 13 24 25 14
4 14 25 26 15
4 15 26 27 16
4 16 27 28 17
4 17 28 29 18
4 18 29 30 19
4 19 30 31 20
4 20 31 32 21
4 22 33 34 23
4 23 34 35 24
4 24 35 36 25
4 25 36 37 26
4 26 37 38 27
4 27 38 39 28
4 28 39 40 29
4 29 40 41 30
4 30 41 42 31
4 31 42 43 32
4 33 44 45 34
4 34 45 46 35
4 35 46 47 36
4 36 47 48 37
4 37 48 49 38
4 38 49 50 39
4 39 50 51 40
4 40 51 52 41
4 41 52 53 42
4 42 53 54 43
4 44 55 56 45
4 45 56 57 46
4 46 57 58 47
4 47 58 59 48
4 48 59 60 49
4 49 60 61 50
4 50 61 62 51
4 51 62 63 52
4 52 63 64 53
4 53 64 65 54
CELL_TYPES 50
9
9
9
9
9
9
9
9
9
9
9
9
9
9
9
9
9
9
9
9
9
9
9
9
9
9
9
9
9
9
9
9
9
9
9
9
9
9
9
9
9
9
9
9
9
9
9
9
9
9
POINT_DATA 66
FIELD FieldData 1
disp 1 66 double
10 10 10 10 10 10 10 10 10 10 10 6 6 6 6 6 6 6 6 6 6 6 2 2 2 2 2 2 2 2 2 2 2 -2 -2 -2 -2 -2 -2 -2 -2 -2 -2 -2 -6 -6 -6 -6 -6 -6 -6 -6 -6 -6 -6 -10 -10 -10 -10 -10 -10 -10 -10 -10 -10 -10 
